Created by you v1.8.1 on today, this month, this year, current time.

42230 atoms
28209 bonds
14297 angles
243 dihedrals
9 impropers

9 atom types
7 bond types
10 angle types
9 dihedral types
1 improper types

-38 38 xlo xhi
-38 38 ylo yhi
-38 38 zlo zhi

Masses

1 1.008    # H of NaPSS
2 12.011   # C of NaPSS
3 13.018   # CH of NaPSS
4 14.026   # CH2 of NaPSS
5 32.065   # S of NaPSS
6 15.999   # O of NaPSS
7 22.989   # Na of NaPSS
8 15.999   # O of H2O
9 1.008    # H of H2O
#10 1.008   # H of butanediol
#11 15.999  # O of butanediol
#12 14.1707 # CH2_1 of butanediol

Atoms

1 1 3 0.0000 -2.4720 -4.0025 -0.8418
2 1 2 -0.0556 -3.7897 -3.6356 -1.5094
3 1 2 -0.1133 -4.7375 -2.9084 -0.7991
4 1 2 -0.1133 -4.1099 -4.0358 -2.8000
5 1 2 -0.0905 -5.9301 -2.5787 -1.4365
6 1 2 -0.0905 -5.3429 -3.7034 -3.4499
7 1 2 -0.1438 -6.1876 -2.8594 -2.7864
8 1 5 1.1061 -6.8231 -1.5528 -3.7164
9 1 6 -0.6131 -7.1009 -0.6534 -2.5297
10 1 6 -0.6131 -5.8165 -2.6903 -3.4654
11 1 6 -0.6131 -6.4854 -0.8017 -4.9910
12 1 1 0.1069 -6.5138 -1.9944 -0.8209
13 1 1 0.0631 -4.6114 -2.6657 0.2961
14 1 1 0.1069 -5.5407 -4.0348 -4.4286
15 1 1 0.0631 -3.4326 -4.6659 -3.3261
16 1 4 0.0000 -1.3023 -3.1957 -1.4561
17 1 7 1.0000 -4.6751 -2.3618 -2.7034
18 1 3 0.0000 -1.1754 -3.4817 -2.9696
19 1 2 -0.0556 -2.5420 -2.8554 -2.9068
20 1 2 -0.1133 -2.7575 -2.0014 -1.7967
21 1 2 -0.1133 -3.3420 -2.6690 -4.0748
22 1 2 -0.0905 -3.7166 -0.9905 -1.8564
23 1 2 -0.0905 -4.1809 -1.5548 -4.1468
24 1 2 -0.1438 -4.3921 -0.7466 -3.0351
25 1 5 1.1061 -5.8302 0.1875 -2.7664
26 1 6 -0.6131 -5.2874 -1.1126 -3.1737
27 1 6 -0.6131 -4.7671 0.9958 -2.2429
28 1 6 -0.6131 -6.5231 0.7588 -3.9975
29 1 1 0.1069 -4.0381 -0.6780 -0.8548
30 1 1 0.0631 -2.0713 -1.9600 -0.9448
31 1 1 0.1069 -4.8710 -1.4725 -4.9221
32 1 1 0.0631 -3.2375 -3.2410 -4.9922
33 1 4 0.0000 0.0714 -2.7491 -2.6487
34 1 7 1.0000 -5.9228 0.3829 -5.1756
35 1 3 0.0000 0.8720 -2.4404 -3.9731
36 1 2 -0.0556 -0.5722 -2.1515 -4.2899
37 1 2 -0.1133 -1.2814 -1.5133 -3.2174
38 1 2 -0.1133 -0.8847 -1.7560 -5.5901
39 1 2 -0.0905 -2.3926 -0.7820 -3.3853
40 1 2 -0.0905 -1.9492 -0.9173 -5.7536
41 1 2 -0.1438 -2.6743 -0.3972 -4.6968
42 1 5 1.1061 -3.3208 1.1897 -5.0740
43 1 6 -0.6131 -2.4061 1.0131 -6.1979
44 1 6 -0.6131 -2.8113 0.4526 -3.8393
45 1 6 -0.6131 -4.7074 0.8745 -5.4077
46 1 1 0.1069 -2.5628 -0.1198 -2.5608
47 1 1 0.0631 -0.6666 -1.3006 -2.3346
48 1 1 0.1069 -2.2257 -0.5138 -6.7532
49 1 1 0.0631 -0.1356 -1.7922 -6.3930
50 1 4 0.0000 1.7410 -1.8299 -2.9381
51 1 7 1.0000 -3.5150 0.9367 -2.8091
52 1 3 0.0000 3.0062 -1.1018 -3.5079
53 1 2 -0.0556 1.9762 -0.4044 -4.3685
54 1 2 -0.1133 0.6434 -0.7200 -4.1036
55 1 2 -0.1133 2.3459 0.6713 -5.1717
56 1 2 -0.0905 -0.3208 -0.0745 -4.8522
57 1 2 -0.0905 1.2903 1.3082 -5.9315
58 1 2 -0.1438 -0.0122 0.8216 -5.8554
59 1 5 1.1061 -1.2372 2.0142 -6.1468
60 1 6 -0.6131 -1.3640 2.9911 -7.2043
61 1 6 -0.6131 0.1764 1.8079 -5.7276
62 1 6 -0.6131 -2.1867 2.2539 -5.0168
63 1 1 0.1069 -1.2832 -0.1924 -4.4642
64 1 1 0.0631 0.3762 -0.9358 -3.1183
65 1 1 0.1069 1.5544 2.0998 -6.6093
66 1 1 0.0631 3.3513 0.9381 -5.1867
67 1 4 0.0000 3.1538 -0.7424 -1.9923
68 1 7 1.0000 0.5651 1.2204 -4.3853
69 1 3 0.0000 3.7001 0.7362 -1.9164
70 1 2 -0.0556 2.4103 1.0822 -2.6596
71 1 2 -0.1133 1.3513 0.2107 -2.5659
72 1 2 -0.1133 2.1353 2.4480 -3.0642
73 1 2 -0.0905 0.0106 0.6528 -2.8605
74 1 2 -0.0905 0.8296 2.8410 -3.4570
75 1 2 -0.1438 -0.2585 1.9868 -3.2597
76 1 5 1.1061 -1.8859 2.5627 -3.5572
77 1 6 -0.6131 -1.6943 3.2436 -2.2295
78 1 6 -0.6131 -0.6917 1.5955 -3.8032
79 1 6 -0.6131 -3.2470 1.9748 -3.6970
80 1 1 0.1069 -0.7921 -0.0335 -2.5729
81 1 1 0.0631 1.5605 -0.6510 -1.9475
82 1 1 0.1069 0.5244 3.8752 -3.4234
83 1 1 0.0631 3.0290 3.1211 -3.1577
84 1 4 0.0000 3.8505 0.3674 -0.4031
85 1 7 1.0000 -1.5453 0.6074 -3.4375
86 1 3 0.0000 3.9656 1.7545 0.1594
87 1 2 -0.0556 2.6492 1.7625 -0.5828
88 1 2 -0.1133 1.8903 0.5673 -0.6893
89 1 2 -0.1133 1.9996 2.9948 -0.8188
90 1 2 -0.0905 0.4914 0.6786 -0.8391
91 1 2 -0.0905 0.6891 3.0447 -1.2871
92 1 2 -0.1438 -0.0426 1.8830 -1.3376
93 1 5 1.1061 -1.7362 2.1914 -1.1626
94 1 6 -0.6131 -0.2676 2.4366 -0.9447
95 1 6 -0.6131 -2.2708 1.4306 0.0730
96 1 6 -0.6131 -2.1533 1.4125 -2.4945
97 1 1 0.1069 -0.2541 -0.1517 -0.6831
98 1 1 0.0631 2.1888 -0.2703 -0.1200
99 1 1 0.1069 0.1005 3.9398 -1.4270
100 1 1 0.0631 2.4871 3.9136 -0.6308
101 1 4 0.0000 4.3093 1.0542 1.5120
102 1 7 1.0000 0.4777 2.0587 0.1146
103 1 3 0.0000 4.1469 2.2634 2.4816
104 1 2 -0.0556 2.7858 1.9555 1.9183
105 1 2 -0.1133 2.5277 0.7968 1.1804
106 1 2 -0.1133 1.7438 2.8037 2.3816
107 1 2 -0.0905 1.1318 0.3757 1.1580
108 1 2 -0.0905 0.4274 2.4313 1.9808
109 1 2 -0.1438 0.1315 1.2311 1.4302
110 1 5 1.1061 -1.5449 0.8603 1.3610
111 1 6 -0.6131 -2.1478 1.1210 2.6613
112 1 6 -0.6131 -1.1893 -0.5831 1.2293
113 1 6 -0.6131 -0.3370 1.7771 1.2582
114 1 1 0.1069 1.0085 -0.4915 0.5717
115 1 1 0.0631 3.3355 0.0411 1.0651
116 1 1 0.1069 -0.4602 2.9726 2.2963
117 1 1 0.0631 1.8054 3.7063 2.9220
118 1 4 0.0000 4.8738 1.5189 3.5435
119 1 7 1.0000 1.3864 1.1040 2.5234
120 1 3 0.0000 4.0790 1.9718 4.7738
121 1 2 -0.0556 3.0076 1.3337 3.9630
122 1 2 -0.1133 3.3313 0.2747 3.1442
123 1 2 -0.1133 1.7009 1.6440 4.2839
124 1 2 -0.0905 2.2702 -0.4875 2.6936
125 1 2 -0.0905 0.6377 0.7907 3.8879
126 1 2 -0.1438 0.9549 -0.3419 3.1544
127 1 5 1.1061 -0.2994 -0.9923 2.3664
128 1 6 -0.6131 0.4367 0.2505 2.8960
129 1 6 -0.6131 0.6035 -2.1968 2.6403
130 1 6 -0.6131 -1.5485 -1.1394 3.1014
131 1 1 0.1069 2.6053 -1.4010 2.3160
132 1 1 0.0631 4.3295 -0.1734 3.1506
133 1 1 0.1069 -0.4483 1.0256 3.9784
134 1 1 0.0631 1.5554 2.4732 4.9978
135 1 4 0.0000 5.2262 1.4130 5.5489
136 1 7 1.0000 -1.8767 0.1244 3.5482
137 1 3 0.0000 4.8235 1.5082 7.0420
138 1 2 -0.0556 3.5124 1.1083 6.5389
139 1 2 -0.1133 3.4635 0.2801 5.4401
140 1 2 -0.1133 2.2999 1.4666 7.2174
141 1 2 -0.0905 2.2890 -0.2554 4.9639
142 1 2 -0.0905 1.0995 1.0136 6.6698
143 1 2 -0.1438 1.1561 0.1500 5.5691
144 1 5 1.1061 -0.2181 -0.8224 5.3430
145 1 6 -0.6131 0.7668 -0.0823 6.2544
146 1 6 -0.6131 0.5587 -1.5651 4.3292
147 1 6 -0.6131 -1.1839 0.1743 4.7565
148 1 1 0.1069 2.4092 -1.0680 4.2297
149 1 1 0.0631 4.4218 -0.0178 4.9455
150 1 1 0.1069 0.1654 1.2539 7.1844
151 1 1 0.0631 2.4757 2.1869 8.0302
152 1 4 0.0000 6.1150 0.7393 7.1014
153 1 7 1.0000 2.2155 -0.3445 6.6575
154 1 3 0.0000 6.2030 0.1856 8.4435
155 1 2 -0.0556 4.9794 -0.2975 7.8133
156 1 2 -0.1133 5.0186 -0.6998 6.4814
157 1 2 -0.1133 3.8680 -0.6173 8.6343
158 1 2 -0.0905 3.9962 -1.4953 5.9536
159 1 2 -0.0905 2.7387 -1.2997 8.0130
160 1 2 -0.1438 2.9018 -1.8342 6.7313
161 1 5 1.1061 1.4637 -2.5164 6.0006
162 1 6 -0.6131 0.0403 -2.1213 6.0462
163 1 6 -0.6131 2.2227 -1.7133 7.0288
164 1 6 -0.6131 2.1239 -2.4791 4.6575
165 1 1 0.1069 4.0389 -1.6723 4.8635
166 1 1 0.0631 6.0272 -0.6220 6.0378
167 1 1 0.1069 1.7981 -1.4351 8.5674
168 1 1 0.0631 3.8991 -0.3122 9.6644
169 1 4 0.0000 7.6755 0.0648 8.1322
170 1 7 1.0000 1.5215 -2.0076 3.5578
171 2 8 -0.8300 -28.0497 34.4520 9.9201
172 2 9 0.4150 -28.3697 34.5820 9.0101
173 2 9 0.4150 -27.0797 34.4520 9.9201
174 2 8 -0.8300 3.3679 3.7075 7.0556
175 2 9 0.4150 3.0479 3.8375 6.1456
176 2 9 0.4150 4.3379 3.7075 7.0556
177 2 8 -0.8300 22.5052 -18.6172 -8.7175
178 2 9 0.4150 22.1852 -18.4872 -9.6275
179 2 9 0.4150 23.4752 -18.6172 -8.7175
180 2 8 -0.8300 -0.8267 -14.6377 3.4598
181 2 9 0.4150 -1.1467 -14.5077 2.5498
182 2 9 0.4150 0.1433 -14.6377 3.4598
183 2 8 -0.8300 -0.3074 1.2874 22.0470
184 2 9 0.4150 -0.6274 1.4174 21.1370
185 2 9 0.4150 0.6626 1.2874 22.0470
186 2 8 -0.8300 -24.9089 24.2840 24.3209
187 2 9 0.4150 -25.2289 24.4140 23.4109
188 2 9 0.4150 -23.9389 24.2840 24.3209
189 2 8 -0.8300 -21.7696 2.9887 -7.0820
190 2 9 0.4150 -22.0896 3.1187 -7.9920
191 2 9 0.4150 -20.7996 2.9887 -7.0820
192 2 8 -0.8300 19.1178 -6.0175 32.6694
193 2 9 0.4150 18.7978 -5.8875 31.7594
194 2 9 0.4150 20.0878 -6.0175 32.6694
195 2 8 -0.8300 -3.7353 -30.6506 5.2337
196 2 9 0.4150 -4.0553 -30.5206 4.3237
197 2 9 0.4150 -2.7653 -30.6506 5.2337
198 2 8 -0.8300 22.3045 12.8037 6.0806
199 2 9 0.4150 21.9845 12.9337 5.1706
200 2 9 0.4150 23.2745 12.8037 6.0806
201 2 8 -0.8300 -24.3246 21.9512 3.1812
202 2 9 0.4150 -24.6446 22.0812 2.2712
203 2 9 0.4150 -23.3546 21.9512 3.1812
204 2 8 -0.8300 23.0737 -12.1132 -30.4628
205 2 9 0.4150 22.7537 -11.9832 -31.3728
206 2 9 0.4150 24.0437 -12.1132 -30.4628
207 2 8 -0.8300 -7.0219 -27.0402 -11.8020
208 2 9 0.4150 -7.3419 -26.9102 -12.7120
209 2 9 0.4150 -6.0519 -27.0402 -11.8020
210 2 8 -0.8300 21.7389 9.3303 10.8383
211 2 9 0.4150 21.4189 9.4603 9.9283
212 2 9 0.4150 22.7089 9.3303 10.8383
213 2 8 -0.8300 -11.9526 -28.4094 -25.2258
214 2 9 0.4150 -12.2726 -28.2794 -26.1358
215 2 9 0.4150 -10.9826 -28.4094 -25.2258
216 2 8 -0.8300 -27.0568 -16.1211 36.3363
217 2 9 0.4150 -27.3768 -15.9911 35.4263
218 2 9 0.4150 -26.0868 -16.1211 36.3363
219 2 8 -0.8300 34.7424 -0.6934 1.9735
220 2 9 0.4150 34.4224 -0.5634 1.0635
221 2 9 0.4150 35.7124 -0.6934 1.9735
222 2 8 -0.8300 -9.4908 -19.0079 33.2340
223 2 9 0.4150 -9.8108 -18.8779 32.3240
224 2 9 0.4150 -8.5208 -19.0079 33.2340
225 2 8 -0.8300 -13.9726 14.4540 -34.7680
226 2 9 0.4150 -14.2926 14.5840 -35.6780
227 2 9 0.4150 -13.0026 14.4540 -34.7680
228 2 8 -0.8300 28.7393 -0.6738 15.3137
229 2 9 0.4150 28.4193 -0.5438 14.4037
230 2 9 0.4150 29.7093 -0.6738 15.3137
231 2 8 -0.8300 -2.3313 12.1988 -0.0866
232 2 9 0.4150 -2.6513 12.3288 -0.9966
233 2 9 0.4150 -1.3613 12.1988 -0.0866
234 2 8 -0.8300 -36.3013 -2.1597 25.0783
235 2 9 0.4150 -36.6213 -2.0297 24.1683
236 2 9 0.4150 -35.3313 -2.1597 25.0783
237 2 8 -0.8300 -29.2859 28.0156 35.3161
238 2 9 0.4150 -29.6059 28.1456 34.4061
239 2 9 0.4150 -28.3159 28.0156 35.3161
240 2 8 -0.8300 -3.6096 12.3222 7.2949
241 2 9 0.4150 -3.9296 12.4522 6.3849
242 2 9 0.4150 -2.6396 12.3222 7.2949
243 2 8 -0.8300 -29.9226 -37.0627 16.1635
244 2 9 0.4150 -30.2426 -36.9327 15.2535
245 2 9 0.4150 -28.9526 -37.0627 16.1635
246 2 8 -0.8300 -17.6701 -26.9223 -37.3090
247 2 9 0.4150 -17.9901 -26.7923 -38.2190
248 2 9 0.4150 -16.7001 -26.9223 -37.3090
249 2 8 -0.8300 -18.4850 -29.6121 -0.7244
250 2 9 0.4150 -18.8050 -29.4821 -1.6344
251 2 9 0.4150 -17.5150 -29.6121 -0.7244
252 2 8 -0.8300 20.9668 -1.9057 17.5457
253 2 9 0.4150 20.6468 -1.7757 16.6357
254 2 9 0.4150 21.9368 -1.9057 17.5457
255 2 8 -0.8300 17.0496 21.3189 -5.3517
256 2 9 0.4150 16.7296 21.4489 -6.2617
257 2 9 0.4150 18.0196 21.3189 -5.3517
258 2 8 -0.8300 19.7598 12.6259 31.2525
259 2 9 0.4150 19.4398 12.7559 30.3425
260 2 9 0.4150 20.7298 12.6259 31.2525
261 2 8 -0.8300 -2.0777 -27.1376 6.0998
262 2 9 0.4150 -2.3977 -27.0076 5.1898
263 2 9 0.4150 -1.1077 -27.1376 6.0998
264 2 8 -0.8300 35.3140 -26.2417 -33.4114
265 2 9 0.4150 34.9940 -26.1117 -34.3214
266 2 9 0.4150 36.2840 -26.2417 -33.4114
267 2 8 -0.8300 23.2411 -18.3304 31.8822
268 2 9 0.4150 22.9211 -18.2004 30.9722
269 2 9 0.4150 24.2111 -18.3304 31.8822
270 2 8 -0.8300 21.4059 15.2572 6.8529
271 2 9 0.4150 21.0859 15.3872 5.9429
272 2 9 0.4150 22.3759 15.2572 6.8529
273 2 8 -0.8300 -8.4504 22.5318 7.0683
274 2 9 0.4150 -8.7704 22.6618 6.1583
275 2 9 0.4150 -7.4804 22.5318 7.0683
276 2 8 -0.8300 -29.4381 -32.5705 17.4240
277 2 9 0.4150 -29.7581 -32.4405 16.5140
278 2 9 0.4150 -28.4681 -32.5705 17.4240
279 2 8 -0.8300 -29.2688 -13.8583 25.0899
280 2 9 0.4150 -29.5888 -13.7283 24.1799
281 2 9 0.4150 -28.2988 -13.8583 25.0899
282 2 8 -0.8300 7.4851 -30.3239 -14.1672
283 2 9 0.4150 7.1651 -30.1939 -15.0772
284 2 9 0.4150 8.4551 -30.3239 -14.1672
285 2 8 -0.8300 -12.1204 23.9229 -30.1998
286 2 9 0.4150 -12.4404 24.0529 -31.1098
287 2 9 0.4150 -11.1504 23.9229 -30.1998
288 2 8 -0.8300 20.0062 6.2504 19.7041
289 2 9 0.4150 19.6862 6.3804 18.7941
290 2 9 0.4150 20.9762 6.2504 19.7041
291 2 8 -0.8300 14.1074 -33.2596 29.8446
292 2 9 0.4150 13.7874 -33.1296 28.9346
293 2 9 0.4150 15.0774 -33.2596 29.8446
294 2 8 -0.8300 -16.9439 -35.3778 -33.7486
295 2 9 0.4150 -17.2639 -35.2478 -34.6586
296 2 9 0.4150 -15.9739 -35.3778 -33.7486
297 2 8 -0.8300 -12.8771 25.0605 -14.8010
298 2 9 0.4150 -13.1971 25.1905 -15.7110
299 2 9 0.4150 -11.9071 25.0605 -14.8010
300 2 8 -0.8300 -18.1460 9.0341 -36.8953
301 2 9 0.4150 -18.4660 9.1641 -37.8053
302 2 9 0.4150 -17.1760 9.0341 -36.8953
303 2 8 -0.8300 26.1852 -36.8485 22.9146
304 2 9 0.4150 25.8652 -36.7185 22.0046
305 2 9 0.4150 27.1552 -36.8485 22.9146
306 2 8 -0.8300 -3.8978 -29.0894 27.6221
307 2 9 0.4150 -4.2178 -28.9594 26.7121
308 2 9 0.4150 -2.9278 -29.0894 27.6221
309 2 8 -0.8300 -23.6249 -21.1609 -23.5877
310 2 9 0.4150 -23.9449 -21.0309 -24.4977
311 2 9 0.4150 -22.6549 -21.1609 -23.5877
312 2 8 -0.8300 -35.6862 23.5214 -16.6336
313 2 9 0.4150 -36.0062 23.6514 -17.5436
314 2 9 0.4150 -34.7162 23.5214 -16.6336
315 2 8 -0.8300 -12.3752 -26.0312 -30.0621
316 2 9 0.4150 -12.6952 -25.9012 -30.9721
317 2 9 0.4150 -11.4052 -26.0312 -30.0621
318 2 8 -0.8300 -5.0967 31.1721 13.4663
319 2 9 0.4150 -5.4167 31.3021 12.5563
320 2 9 0.4150 -4.1267 31.1721 13.4663
321 2 8 -0.8300 -22.5438 7.8473 17.4848
322 2 9 0.4150 -22.8638 7.9773 16.5748
323 2 9 0.4150 -21.5738 7.8473 17.4848
324 2 8 -0.8300 -29.8505 28.1006 19.3850
325 2 9 0.4150 -30.1705 28.2306 18.4750
326 2 9 0.4150 -28.8805 28.1006 19.3850
327 2 8 -0.8300 -26.1209 -22.2088 7.0940
328 2 9 0.4150 -26.4409 -22.0788 6.1840
329 2 9 0.4150 -25.1509 -22.2088 7.0940
330 2 8 -0.8300 -3.4436 -3.1576 -21.2234
331 2 9 0.4150 -3.7636 -3.0276 -22.1334
332 2 9 0.4150 -2.4736 -3.1576 -21.2234
333 2 8 -0.8300 -2.8606 -14.4047 -20.7939
334 2 9 0.4150 -3.1806 -14.2747 -21.7039
335 2 9 0.4150 -1.8906 -14.4047 -20.7939
336 2 8 -0.8300 -17.0972 18.8948 -12.6052
337 2 9 0.4150 -17.4172 19.0248 -13.5152
338 2 9 0.4150 -16.1272 18.8948 -12.6052
339 2 8 -0.8300 -26.6264 32.4670 3.5119
340 2 9 0.4150 -26.9464 32.5970 2.6019
341 2 9 0.4150 -25.6564 32.4670 3.5119
342 2 8 -0.8300 -12.7358 33.9780 -10.3182
343 2 9 0.4150 -13.0558 34.1080 -11.2282
344 2 9 0.4150 -11.7658 33.9780 -10.3182
345 2 8 -0.8300 8.1089 -15.8295 0.9286
346 2 9 0.4150 7.7889 -15.6995 0.0186
347 2 9 0.4150 9.0789 -15.8295 0.9286
348 2 8 -0.8300 15.5250 16.2710 -5.2507
349 2 9 0.4150 15.2050 16.4010 -6.1607
350 2 9 0.4150 16.4950 16.2710 -5.2507
351 2 8 -0.8300 -8.1599 30.9244 -34.7549
352 2 9 0.4150 -8.4799 31.0544 -35.6649
353 2 9 0.4150 -7.1899 30.9244 -34.7549
354 2 8 -0.8300 -27.8263 -36.3584 30.6237
355 2 9 0.4150 -28.1463 -36.2284 29.7137
356 2 9 0.4150 -26.8563 -36.3584 30.6237
357 2 8 -0.8300 29.0369 -25.2820 -28.9366
358 2 9 0.4150 28.7169 -25.1520 -29.8466
359 2 9 0.4150 30.0069 -25.2820 -28.9366
360 2 8 -0.8300 -1.0203 8.4716 5.1839
361 2 9 0.4150 -1.3403 8.6016 4.2739
362 2 9 0.4150 -0.0503 8.4716 5.1839
363 2 8 -0.8300 15.2346 -31.8212 28.0572
364 2 9 0.4150 14.9146 -31.6912 27.1472
365 2 9 0.4150 16.2046 -31.8212 28.0572
366 2 8 -0.8300 31.9190 -11.7212 9.6005
367 2 9 0.4150 31.5990 -11.5912 8.6905
368 2 9 0.4150 32.8890 -11.7212 9.6005
369 2 8 -0.8300 -17.8375 -1.1504 4.7160
370 2 9 0.4150 -18.1575 -1.0204 3.8060
371 2 9 0.4150 -16.8675 -1.1504 4.7160
372 2 8 -0.8300 23.1527 23.3110 1.3426
373 2 9 0.4150 22.8327 23.4410 0.4326
374 2 9 0.4150 24.1227 23.3110 1.3426
375 2 8 -0.8300 -24.3167 -6.0124 22.7912
376 2 9 0.4150 -24.6367 -5.8824 21.8812
377 2 9 0.4150 -23.3467 -6.0124 22.7912
378 2 8 -0.8300 14.0902 -27.9196 1.7107
379 2 9 0.4150 13.7702 -27.7896 0.8007
380 2 9 0.4150 15.0602 -27.9196 1.7107
381 2 8 -0.8300 -28.3118 1.1177 -4.7164
382 2 9 0.4150 -28.6318 1.2477 -5.6264
383 2 9 0.4150 -27.3418 1.1177 -4.7164
384 2 8 -0.8300 -25.5884 10.4886 -3.7967
385 2 9 0.4150 -25.9084 10.6186 -4.7067
386 2 9 0.4150 -24.6184 10.4886 -3.7967
387 2 8 -0.8300 -32.1159 2.0933 8.1993
388 2 9 0.4150 -32.4359 2.2233 7.2893
389 2 9 0.4150 -31.1459 2.0933 8.1993
390 2 8 -0.8300 -23.5742 -36.3594 -20.6805
391 2 9 0.4150 -23.8942 -36.2294 -21.5905
392 2 9 0.4150 -22.6042 -36.3594 -20.6805
393 2 8 -0.8300 19.0879 16.0724 -15.2237
394 2 9 0.4150 18.7679 16.2024 -16.1337
395 2 9 0.4150 20.0579 16.0724 -15.2237
396 2 8 -0.8300 9.9939 10.5591 10.3331
397 2 9 0.4150 9.6739 10.6891 9.4231
398 2 9 0.4150 10.9639 10.5591 10.3331
399 2 8 -0.8300 -17.5568 29.9189 -28.1688
400 2 9 0.4150 -17.8768 30.0489 -29.0788
401 2 9 0.4150 -16.5868 29.9189 -28.1688
402 2 8 -0.8300 24.6375 15.6393 32.4202
403 2 9 0.4150 24.3175 15.7693 31.5102
404 2 9 0.4150 25.6075 15.6393 32.4202
405 2 8 -0.8300 -11.1711 28.5198 -10.9436
406 2 9 0.4150 -11.4911 28.6498 -11.8536
407 2 9 0.4150 -10.2011 28.5198 -10.9436
408 2 8 -0.8300 -25.5312 5.1777 -1.5852
409 2 9 0.4150 -25.8512 5.3077 -2.4952
410 2 9 0.4150 -24.5612 5.1777 -1.5852
411 2 8 -0.8300 13.6578 14.0632 36.8105
412 2 9 0.4150 13.3378 14.1932 35.9005
413 2 9 0.4150 14.6278 14.0632 36.8105
414 2 8 -0.8300 -28.2098 25.6720 9.9477
415 2 9 0.4150 -28.5298 25.8020 9.0377
416 2 9 0.4150 -27.2398 25.6720 9.9477
417 2 8 -0.8300 5.4718 30.7533 -25.3106
418 2 9 0.4150 5.1518 30.8833 -26.2206
419 2 9 0.4150 6.4418 30.7533 -25.3106
420 2 8 -0.8300 -23.4801 -30.2532 -24.3919
421 2 9 0.4150 -23.8001 -30.1232 -25.3019
422 2 9 0.4150 -22.5101 -30.2532 -24.3919
423 2 8 -0.8300 -6.6824 26.0319 28.9585
424 2 9 0.4150 -7.0024 26.1619 28.0485
425 2 9 0.4150 -5.7124 26.0319 28.9585
426 2 8 -0.8300 15.5722 -1.4064 2.1662
427 2 9 0.4150 15.2522 -1.2764 1.2562
428 2 9 0.4150 16.5422 -1.4064 2.1662
429 2 8 -0.8300 -11.2460 18.2340 -5.2665
430 2 9 0.4150 -11.5660 18.3640 -6.1765
431 2 9 0.4150 -10.2760 18.2340 -5.2665
432 2 8 -0.8300 -1.9365 5.4392 -26.9787
433 2 9 0.4150 -2.2565 5.5692 -27.8887
434 2 9 0.4150 -0.9665 5.4392 -26.9787
435 2 8 -0.8300 -6.6675 31.4653 -35.8103
436 2 9 0.4150 -6.9875 31.5953 -36.7203
437 2 9 0.4150 -5.6975 31.4653 -35.8103
438 2 8 -0.8300 19.8672 -31.4982 6.6454
439 2 9 0.4150 19.5472 -31.3682 5.7354
440 2 9 0.4150 20.8372 -31.4982 6.6454
441 2 8 -0.8300 -18.8692 19.3568 -16.6429
442 2 9 0.4150 -19.1892 19.4868 -17.5529
443 2 9 0.4150 -17.8992 19.3568 -16.6429
444 2 8 -0.8300 -19.2099 28.3442 -28.3224
445 2 9 0.4150 -19.5299 28.4742 -29.2324
446 2 9 0.4150 -18.2399 28.3442 -28.3224
447 2 8 -0.8300 28.2160 -3.6163 -34.9206
448 2 9 0.4150 27.8960 -3.4863 -35.8306
449 2 9 0.4150 29.1860 -3.6163 -34.9206
450 2 8 -0.8300 -34.2458 10.1008 -27.8958
451 2 9 0.4150 -34.5658 10.2308 -28.8058
452 2 9 0.4150 -33.2757 10.1008 -27.8958
453 2 8 -0.8300 -21.1594 -34.0138 35.4142
454 2 9 0.4150 -21.4794 -33.8838 34.5042
455 2 9 0.4150 -20.1894 -34.0138 35.4142
456 2 8 -0.8300 -29.3521 18.7556 -3.3438
457 2 9 0.4150 -29.6721 18.8856 -4.2538
458 2 9 0.4150 -28.3821 18.7556 -3.3438
459 2 8 -0.8300 10.2924 -29.9226 -22.4613
460 2 9 0.4150 9.9724 -29.7926 -23.3713
461 2 9 0.4150 11.2624 -29.9226 -22.4613
462 2 8 -0.8300 -32.1253 5.3381 20.2559
463 2 9 0.4150 -32.4453 5.4681 19.3459
464 2 9 0.4150 -31.1553 5.3381 20.2559
465 2 8 -0.8300 -21.6257 35.8678 14.3697
466 2 9 0.4150 -21.9457 35.9978 13.4597
467 2 9 0.4150 -20.6557 35.8678 14.3697
468 2 8 -0.8300 -19.9577 18.3028 20.1496
469 2 9 0.4150 -20.2777 18.4328 19.2396
470 2 9 0.4150 -18.9877 18.3028 20.1496
471 2 8 -0.8300 24.1660 36.6308 2.1549
472 2 9 0.4150 23.8460 36.7608 1.2449
473 2 9 0.4150 25.1360 36.6308 2.1549
474 2 8 -0.8300 -29.6282 -20.0114 -6.8524
475 2 9 0.4150 -29.9482 -19.8814 -7.7624
476 2 9 0.4150 -28.6582 -20.0114 -6.8524
477 2 8 -0.8300 -20.4723 -29.2277 26.8093
478 2 9 0.4150 -20.7923 -29.0977 25.8993
479 2 9 0.4150 -19.5023 -29.2277 26.8093
480 2 8 -0.8300 -17.9146 -26.2762 -0.4413
481 2 9 0.4150 -18.2346 -26.1462 -1.3513
482 2 9 0.4150 -16.9446 -26.2762 -0.4413
483 2 8 -0.8300 -8.3321 -10.2384 2.8229
484 2 9 0.4150 -8.6521 -10.1084 1.9129
485 2 9 0.4150 -7.3621 -10.2384 2.8229
486 2 8 -0.8300 -10.0692 -2.3932 -15.7730
487 2 9 0.4150 -10.3892 -2.2632 -16.6830
488 2 9 0.4150 -9.0992 -2.3932 -15.7730
489 2 8 -0.8300 24.0653 -29.5331 -8.4176
490 2 9 0.4150 23.7453 -29.4031 -9.3276
491 2 9 0.4150 25.0353 -29.5331 -8.4176
492 2 8 -0.8300 -35.5472 -24.4612 34.1985
493 2 9 0.4150 -35.8672 -24.3312 33.2885
494 2 9 0.4150 -34.5772 -24.4612 34.1985
495 2 8 -0.8300 22.1871 -8.8896 32.7149
496 2 9 0.4150 21.8671 -8.7596 31.8049
497 2 9 0.4150 23.1571 -8.8896 32.7149
498 2 8 -0.8300 -0.5944 8.3499 13.6662
499 2 9 0.4150 -0.9144 8.4799 12.7562
500 2 9 0.4150 0.3756 8.3499 13.6662
501 2 8 -0.8300 -17.5961 -4.9164 12.9454
502 2 9 0.4150 -17.9161 -4.7864 12.0354
503 2 9 0.4150 -16.6261 -4.9164 12.9454
504 2 8 -0.8300 22.0371 2.6526 30.2120
505 2 9 0.4150 21.7171 2.7826 29.3020
506 2 9 0.4150 23.0071 2.6526 30.2120
507 2 8 -0.8300 -21.9665 19.3775 -36.3671
508 2 9 0.4150 -22.2865 19.5075 -37.2771
509 2 9 0.4150 -20.9965 19.3775 -36.3671
510 2 8 -0.8300 -32.3084 -35.9693 -25.3653
511 2 9 0.4150 -32.6284 -35.8393 -26.2753
512 2 9 0.4150 -31.3384 -35.9693 -25.3653
513 2 8 -0.8300 4.7286 -7.1042 1.6744
514 2 9 0.4150 4.4086 -6.9742 0.7644
515 2 9 0.4150 5.6986 -7.1042 1.6744
516 2 8 -0.8300 -29.5997 20.0238 36.5592
517 2 9 0.4150 -29.9197 20.1538 35.6492
518 2 9 0.4150 -28.6297 20.0238 36.5592
519 2 8 -0.8300 -7.8944 6.6569 -30.3254
520 2 9 0.4150 -8.2144 6.7869 -31.2354
521 2 9 0.4150 -6.9244 6.6569 -30.3254
522 2 8 -0.8300 21.1663 8.3069 -17.5085
523 2 9 0.4150 20.8463 8.4369 -18.4185
524 2 9 0.4150 22.1363 8.3069 -17.5085
525 2 8 -0.8300 18.2136 -6.9383 10.8799
526 2 9 0.4150 17.8936 -6.8083 9.9699
527 2 9 0.4150 19.1836 -6.9383 10.8799
528 2 8 -0.8300 13.7772 29.6645 -18.1217
529 2 9 0.4150 13.4572 29.7945 -19.0317
530 2 9 0.4150 14.7472 29.6645 -18.1217
531 2 8 -0.8300 -9.7078 -25.3638 14.2399
532 2 9 0.4150 -10.0278 -25.2338 13.3299
533 2 9 0.4150 -8.7378 -25.3638 14.2399
534 2 8 -0.8300 -33.9136 33.8705 -20.4590
535 2 9 0.4150 -34.2336 34.0005 -21.3690
536 2 9 0.4150 -32.9436 33.8705 -20.4590
537 2 8 -0.8300 33.7767 -25.5283 36.1966
538 2 9 0.4150 33.4567 -25.3983 35.2866
539 2 9 0.4150 34.7467 -25.5283 36.1966
540 2 8 -0.8300 34.8879 -20.6394 -37.1242
541 2 9 0.4150 34.5679 -20.5094 -38.0342
542 2 9 0.4150 35.8579 -20.6394 -37.1242
543 2 8 -0.8300 -27.6287 21.2864 -6.9504
544 2 9 0.4150 -27.9487 21.4164 -7.8604
545 2 9 0.4150 -26.6587 21.2864 -6.9504
546 2 8 -0.8300 11.5240 28.8838 -24.2781
547 2 9 0.4150 11.2040 29.0138 -25.1881
548 2 9 0.4150 12.4940 28.8838 -24.2781
549 2 8 -0.8300 10.9319 -16.4429 19.6568
550 2 9 0.4150 10.6119 -16.3129 18.7468
551 2 9 0.4150 11.9019 -16.4429 19.6568
552 2 8 -0.8300 18.0848 -32.7089 -9.3878
553 2 9 0.4150 17.7648 -32.5789 -10.2978
554 2 9 0.4150 19.0548 -32.7089 -9.3878
555 2 8 -0.8300 -36.5749 22.7019 20.9520
556 2 9 0.4150 -36.8949 22.8319 20.0420
557 2 9 0.4150 -35.6049 22.7019 20.9520
558 2 8 -0.8300 11.7833 -0.9531 13.2650
559 2 9 0.4150 11.4633 -0.8231 12.3550
560 2 9 0.4150 12.7533 -0.9531 13.2650
561 2 8 -0.8300 31.1399 26.5362 25.1793
562 2 9 0.4150 30.8199 26.6662 24.2693
563 2 9 0.4150 32.1099 26.5362 25.1793
564 2 8 -0.8300 8.2286 29.8199 21.6983
565 2 9 0.4150 7.9086 29.9499 20.7883
566 2 9 0.4150 9.1986 29.8199 21.6983
567 2 8 -0.8300 25.2479 26.1643 33.4481
568 2 9 0.4150 24.9279 26.2943 32.5381
569 2 9 0.4150 26.2179 26.1643 33.4481
570 2 8 -0.8300 24.2933 23.6199 -24.5428
571 2 9 0.4150 23.9733 23.7499 -25.4528
572 2 9 0.4150 25.2633 23.6199 -24.5428
573 2 8 -0.8300 24.6474 33.1884 34.0215
574 2 9 0.4150 24.3274 33.3184 33.1115
575 2 9 0.4150 25.6174 33.1884 34.0215
576 2 8 -0.8300 -19.4543 7.2801 25.5539
577 2 9 0.4150 -19.7743 7.4101 24.6439
578 2 9 0.4150 -18.4843 7.2801 25.5539
579 2 8 -0.8300 -6.2541 -19.2202 -28.2404
580 2 9 0.4150 -6.5741 -19.0902 -29.1504
581 2 9 0.4150 -5.2841 -19.2202 -28.2404
582 2 8 -0.8300 -23.7486 36.0618 -23.6713
583 2 9 0.4150 -24.0686 36.1918 -24.5813
584 2 9 0.4150 -22.7786 36.0618 -23.6713
585 2 8 -0.8300 4.3419 36.6842 36.3086
586 2 9 0.4150 4.0219 36.8142 35.3986
587 2 9 0.4150 5.3119 36.6842 36.3086
588 2 8 -0.8300 -11.8573 11.0352 -1.9960
589 2 9 0.4150 -12.1773 11.1652 -2.9060
590 2 9 0.4150 -10.8873 11.0352 -1.9960
591 2 8 -0.8300 -35.7435 4.7428 -12.8112
592 2 9 0.4150 -36.0635 4.8728 -13.7212
593 2 9 0.4150 -34.7735 4.7428 -12.8112
594 2 8 -0.8300 26.9141 -24.4608 -20.3429
595 2 9 0.4150 26.5941 -24.3308 -21.2529
596 2 9 0.4150 27.8841 -24.4608 -20.3429
597 2 8 -0.8300 11.4612 -36.6452 -31.5301
598 2 9 0.4150 11.1412 -36.5152 -32.4401
599 2 9 0.4150 12.4312 -36.6452 -31.5301
600 2 8 -0.8300 7.7581 24.8454 29.3678
601 2 9 0.4150 7.4381 24.9754 28.4578
602 2 9 0.4150 8.7281 24.8454 29.3678
603 2 8 -0.8300 20.6935 12.0605 25.2048
604 2 9 0.4150 20.3735 12.1905 24.2948
605 2 9 0.4150 21.6635 12.0605 25.2048
606 2 8 -0.8300 17.5639 29.8034 -4.8666
607 2 9 0.4150 17.2439 29.9334 -5.7766
608 2 9 0.4150 18.5338 29.8034 -4.8666
609 2 8 -0.8300 5.9665 -13.8830 13.1912
610 2 9 0.4150 5.6465 -13.7530 12.2812
611 2 9 0.4150 6.9365 -13.8830 13.1912
612 2 8 -0.8300 15.2044 -0.4343 11.9015
613 2 9 0.4150 14.8844 -0.3043 10.9915
614 2 9 0.4150 16.1744 -0.4343 11.9015
615 2 8 -0.8300 29.0114 -33.5247 11.2342
616 2 9 0.4150 28.6914 -33.3946 10.3242
617 2 9 0.4150 29.9814 -33.5247 11.2342
618 2 8 -0.8300 28.1688 -8.1847 -15.0821
619 2 9 0.4150 27.8488 -8.0547 -15.9921
620 2 9 0.4150 29.1388 -8.1847 -15.0821
621 2 8 -0.8300 -10.9784 -6.7310 26.9387
622 2 9 0.4150 -11.2984 -6.6010 26.0287
623 2 9 0.4150 -10.0084 -6.7310 26.9387
624 2 8 -0.8300 13.6886 -17.2491 -34.8736
625 2 9 0.4150 13.3686 -17.1191 -35.7836
626 2 9 0.4150 14.6586 -17.2491 -34.8736
627 2 8 -0.8300 30.8241 31.4093 -34.2407
628 2 9 0.4150 30.5041 31.5393 -35.1507
629 2 9 0.4150 31.7941 31.4093 -34.2407
630 2 8 -0.8300 36.7723 1.7351 27.8827
631 2 9 0.4150 36.4523 1.8651 26.9727
632 2 9 0.4150 37.7423 1.7351 27.8827
633 2 8 -0.8300 28.9889 -15.0037 2.5917
634 2 9 0.4150 28.6689 -14.8737 1.6817
635 2 9 0.4150 29.9589 -15.0037 2.5917
636 2 8 -0.8300 17.0424 -34.8721 -4.9564
637 2 9 0.4150 16.7224 -34.7421 -5.8664
638 2 9 0.4150 18.0124 -34.8721 -4.9564
639 2 8 -0.8300 -24.9754 8.2917 18.4387
640 2 9 0.4150 -25.2954 8.4217 17.5287
641 2 9 0.4150 -24.0054 8.2917 18.4387
642 2 8 -0.8300 25.6940 -13.9362 -19.3471
643 2 9 0.4150 25.3740 -13.8062 -20.2571
644 2 9 0.4150 26.6640 -13.9362 -19.3471
645 2 8 -0.8300 0.4443 -22.3571 -15.5937
646 2 9 0.4150 0.1243 -22.2271 -16.5037
647 2 9 0.4150 1.4143 -22.3571 -15.5937
648 2 8 -0.8300 -25.4727 -31.6206 13.4996
649 2 9 0.4150 -25.7927 -31.4906 12.5896
650 2 9 0.4150 -24.5027 -31.6206 13.4996
651 2 8 -0.8300 -3.0766 -5.4018 -30.5829
652 2 9 0.4150 -3.3966 -5.2718 -31.4929
653 2 9 0.4150 -2.1066 -5.4018 -30.5829
654 2 8 -0.8300 -13.2890 -29.1455 -10.5540
655 2 9 0.4150 -13.6090 -29.0155 -11.4640
656 2 9 0.4150 -12.3190 -29.1455 -10.5540
657 2 8 -0.8300 -10.6843 -35.7537 -16.4962
658 2 9 0.4150 -11.0043 -35.6237 -17.4062
659 2 9 0.4150 -9.7143 -35.7537 -16.4962
660 2 8 -0.8300 -7.4467 -36.4137 22.5170
661 2 9 0.4150 -7.7667 -36.2837 21.6070
662 2 9 0.4150 -6.4767 -36.4137 22.5170
663 2 8 -0.8300 -16.7152 29.7724 -29.8382
664 2 9 0.4150 -17.0352 29.9024 -30.7482
665 2 9 0.4150 -15.7452 29.7724 -29.8382
666 2 8 -0.8300 23.3547 9.3825 -27.4323
667 2 9 0.4150 23.0347 9.5125 -28.3423
668 2 9 0.4150 24.3247 9.3825 -27.4323
669 2 8 -0.8300 -18.7529 21.6043 18.1374
670 2 9 0.4150 -19.0729 21.7343 17.2274
671 2 9 0.4150 -17.7829 21.6043 18.1374
672 2 8 -0.8300 37.1641 9.8660 -33.1503
673 2 9 0.4150 36.8441 9.9960 -34.0603
674 2 9 0.4150 38.1341 9.8660 -33.1503
675 2 8 -0.8300 -19.3342 -27.1219 -18.2294
676 2 9 0.4150 -19.6542 -26.9919 -19.1394
677 2 9 0.4150 -18.3642 -27.1219 -18.2294
678 2 8 -0.8300 2.5503 -15.3975 -12.5721
679 2 9 0.4150 2.2303 -15.2675 -13.4821
680 2 9 0.4150 3.5203 -15.3975 -12.5721
681 2 8 -0.8300 -21.1013 18.7232 19.3041
682 2 9 0.4150 -21.4213 18.8532 18.3941
683 2 9 0.4150 -20.1313 18.7232 19.3041
684 2 8 -0.8300 -14.2059 -31.9981 27.4367
685 2 9 0.4150 -14.5259 -31.8681 26.5267
686 2 9 0.4150 -13.2359 -31.9981 27.4367
687 2 8 -0.8300 12.7184 -5.4852 28.9610
688 2 9 0.4150 12.3984 -5.3552 28.0510
689 2 9 0.4150 13.6884 -5.4852 28.9610
690 2 8 -0.8300 33.7005 24.2653 29.8253
691 2 9 0.4150 33.3805 24.3953 28.9153
692 2 9 0.4150 34.6705 24.2653 29.8253
693 2 8 -0.8300 19.0663 -29.8823 22.2462
694 2 9 0.4150 18.7463 -29.7523 21.3362
695 2 9 0.4150 20.0363 -29.8823 22.2462
696 2 8 -0.8300 26.7064 30.6697 -5.7228
697 2 9 0.4150 26.3864 30.7997 -6.6328
698 2 9 0.4150 27.6764 30.6697 -5.7228
699 2 8 -0.8300 36.7524 -25.5154 -21.4700
700 2 9 0.4150 36.4324 -25.3854 -22.3800
701 2 9 0.4150 37.7224 -25.5154 -21.4700
702 2 8 -0.8300 17.7386 -25.7836 25.6741
703 2 9 0.4150 17.4186 -25.6536 24.7641
704 2 9 0.4150 18.7086 -25.7836 25.6741
705 2 8 -0.8300 22.0665 -7.9206 35.8302
706 2 9 0.4150 21.7465 -7.7906 34.9202
707 2 9 0.4150 23.0365 -7.9206 35.8302
708 2 8 -0.8300 -33.3141 31.8269 -16.9187
709 2 9 0.4150 -33.6341 31.9569 -17.8287
710 2 9 0.4150 -32.3441 31.8269 -16.9187
711 2 8 -0.8300 -8.4079 -26.7067 -35.5470
712 2 9 0.4150 -8.7279 -26.5767 -36.4570
713 2 9 0.4150 -7.4379 -26.7067 -35.5470
714 2 8 -0.8300 -26.2550 -3.7154 -30.2671
715 2 9 0.4150 -26.5750 -3.5854 -31.1771
716 2 9 0.4150 -25.2850 -3.7154 -30.2671
717 2 8 -0.8300 -35.9696 -28.4293 1.5257
718 2 9 0.4150 -36.2896 -28.2993 0.6157
719 2 9 0.4150 -34.9996 -28.4293 1.5257
720 2 8 -0.8300 30.4697 -32.1610 -11.5605
721 2 9 0.4150 30.1497 -32.0310 -12.4705
722 2 9 0.4150 31.4397 -32.1610 -11.5605
723 2 8 -0.8300 23.1438 24.1024 -4.1647
724 2 9 0.4150 22.8238 24.2324 -5.0747
725 2 9 0.4150 24.1138 24.1024 -4.1647
726 2 8 -0.8300 8.2387 13.3765 -10.8465
727 2 9 0.4150 7.9187 13.5065 -11.7565
728 2 9 0.4150 9.2087 13.3765 -10.8465
729 2 8 -0.8300 -34.6353 12.6966 0.9161
730 2 9 0.4150 -34.9553 12.8266 0.0061
731 2 9 0.4150 -33.6653 12.6966 0.9161
732 2 8 -0.8300 -18.6270 -6.9971 12.4105
733 2 9 0.4150 -18.9470 -6.8671 11.5005
734 2 9 0.4150 -17.6570 -6.9971 12.4105
735 2 8 -0.8300 -30.1041 -22.3629 -32.8616
736 2 9 0.4150 -30.4241 -22.2329 -33.7716
737 2 9 0.4150 -29.1341 -22.3629 -32.8616
738 2 8 -0.8300 -31.4251 -18.4798 36.2434
739 2 9 0.4150 -31.7451 -18.3498 35.3334
740 2 9 0.4150 -30.4551 -18.4798 36.2434
741 2 8 -0.8300 -10.8656 10.3095 -27.8148
742 2 9 0.4150 -11.1856 10.4395 -28.7248
743 2 9 0.4150 -9.8956 10.3095 -27.8148
744 2 8 -0.8300 -8.9343 21.2517 5.7478